h 2.007095 3 -1 exp 76 ------- 0 3.0 0.0 0 0
+ 2.007095 3 -1 exp 53 ------- 0 3.0 0.0 0 0
+ 2.007095 3 -1 exp 53 ------- 0 3.0 0.0 0 0
- 2.027786 3 -1 exp 53 ------- 0 3.0 0.0 0 0
h 2.047095 3 -1 exp 76 ------- 0 3.0 0.0 1 1
+ 2.047095 3 -1 exp 53 ------- 0 3.0 0.0 1 1
+ 2.047095 3 -1 exp 53 ------- 0 3.0 0.0 1 1
- 2.054286 3 -1 exp 53 ------- 0 3.0 0.0 0 0
- 2.080786 3 -1 exp 53 ------- 0 3.0 0.0 1 1
h 2.087095 3 -1 exp 76 ------- 0 3.0 0.0 2 2
+ 2.087095 3 -1 exp 53 ------- 0 3.0 0.0 2 2
+ 2.087095 3 -1 exp 53 ------- 0 3.0 0.0 2 2
- 2.107286 3 -1 exp 53 ------- 0 3.0 0.0 1 1
h 2.127095 3 -1 exp 76 ------- 0 3.0 0.0 3 3
+ 2.127095 3 -1 exp 53 ------- 0 3.0 0.0 3 3
+ 2.127095 3 -1 exp 53 ------- 0 3.0 0.0 3 3
- 2.133786 3 -1 exp 53 ------- 0 3.0 0.0 2 2
- 2.160286 3 -1 exp 53 ------- 0 3.0 0.0 2 2
h 2.167095 3 -1 exp 76 ------- 0 3.0 0.0 4 4
+ 2.167095 3 -1 exp 53 ------- 0 3.0 0.0 4 4
+ 2.167095 3 -1 exp 53 ------- 0 3.0 0.0 4 4
- 2.186786 3 -1 exp 53 ------- 0 3.0 0.0 3 3
h 2.207095 3 -1 exp 76 ------- 0 3.0 0.0 5 5
+ 2.207095 3 -1 exp 53 ------- 0 3.0 0.0 5 5
+ 2.207095 3 -1 exp 53 ------- 0 3.0 0.0 5 5
- 2.213286 3 -1 exp 53 ------- 0 3.0 0.0 3 3
- 2.239786 3 -1 exp 53 ------- 0 3.0 0.0 4 4
h 2.247095 3 -1 exp 76 ------- 0 3.0 0.0 6 6
+ 2.247095 3 -1 exp 53 ------- 0 3.0 0.0 6 6
+ 2.247095 3 -1 exp 53 ------- 0 3.0 0.0 6 6
- 2.266286 3 -1 exp 53 ------- 0 3.0 0.0 4 4
r 2.280072 -1 2 exp 53 ------- 0 3.0 0.0 0 0
h 2.287095 3 -1 exp 76 ------- 0 3.0 0.0 7 7
+ 2.287095 3 -1 exp 53 ------- 0 3.0 0.0 7 7
+ 2.287095 3 -1 exp 53 ------- 0 3.0 0.0 7 7
- 2.292786 3 -1 exp 53 ------- 0 3.0 0.0 5 5
r 2.306572 -1 2 exp 53 ------- 0 3.0 0.0 0 0
+ 2.306572 2 0 exp 76 ------- 0 3.0 0.0 0 0
- 2.306572 2 0 exp 76 ------- 0 3.0 0.0 0 0
r 2.306578 2 0 exp 76 ------- 0 3.0 0.0 0 0
- 2.319286 3 -1 exp 53 ------- 0 3.0 0.0 5 5
h 2.327095 3 -1 exp 76 ------- 0 3.0 0.0 8 8
+ 2.327095 3 -1 exp 53 ------- 0 3.0 0.0 8 8
+ 2.327095 3 -1 exp 53 ------- 0 3.0 0.0 8 8
r 2.333072 -1 2 exp 53 ------- 0 3.0 0.0 1 1
- 2.345786 3 -1 exp 53 ------- 0 3.0 0.0 6 6
r 2.359572 -1 2 exp 53 ------- 0 3.0 0.0 1 1
+ 2.359572 2 0 exp 76 ------- 0 3.0 0.0 1 1
- 2.359572 2 0 exp 76 ------- 0 3.0 0.0 1 1
r 2.359578 2 0 exp 76 ------- 0 3.0 0.0 1 1
h 2.367095 3 -1 exp 76 ------- 0 3.0 0.0 9 9
+ 2.367095 3 -1 exp 53 ------- 0 3.0 0.0 9 9
+ 2.367095 3 -1 exp 53 ------- 0 3.0 0.0 9 9
- 2.372286 3 -1 exp 53 ------- 0 3.0 0.0 6 6
r 2.386072 -1 2 exp 53 ------- 0 3.0 0.0 2 2
- 2.398786 3 -1 exp 53 ------- 0 3.0 0.0 7 7
h 2.407095 3 -1 exp 76 ------- 0 3.0 0.0 10 10
+ 2.407095 3 -1 exp 53 ------- 0 3.0 0.0 10 10
+ 2.407095 3 -1 exp 53 ------- 0 3.0 0.0 10 10
r 2.412572 -1 2 exp 53 ------- 0 3.0 0.0 2 2
+ 2.412572 2 0 exp 76 ------- 0 3.0 0.0 2 2
- 2.412572 2 0 exp 76 ------- 0 3.0 0.0 2 2
r 2.412578 2 0 exp 76 ------- 0 3.0 0.0 2 2
- 2.425286 3 -1 exp 53 ------- 0 3.0 0.0 7 7
r 2.439072 -1 2 exp 53 ------- 0 3.0 0.0 3 3
- 2.451786 3 -1 exp 53 ------- 0 3.0 0.0 8 8
r 2.465572 -1 2 exp 53 ------- 0 3.0 0.0 3 3
+ 2.465572 2 0 exp 76 ------- 0 3.0 0.0 3 3
- 2.465572 2 0 exp 76 ------- 0 3.0 0.0 3 3
r 2.465578 2 0 exp 76 ------- 0 3.0 0.0 3 3
- 2.478286 3 -1 exp 53 ------- 0 3.0 0.0 8 8
r 2.492072 -1 2 exp 53 ------- 0 3.0 0.0 4 4
- 2.504786 3 -1 exp 53 ------- 0 3.0 0.0 9 9
r 2.518572 -1 2 exp 53 ------- 0 3.0 0.0 4 4
+ 2.518572 2 0 exp 76 ------- 0 3.0 0.0 4 4
- 2.518572 2 0 exp 76 ------- 0 3.0 0.0 4 4
r 2.518578 2 0 exp 76 ------- 0 3.0 0.0 4 4
- 2.531286 3 -1 exp 53 ------- 0 3.0 0.0 9 9
r 2.545072 -1 2 exp 53 ------- 0 3.0 0.0 5 5
- 2.557786 3 -1 exp 53 ------- 0 3.0 0.0 10 10
r 2.571572 -1 2 exp 53 ------- 0 3.0 0.0 5 5
+ 2.571572 2 0 exp 76 ------- 0 3.0 0.0 5 5
- 2.571572 2 0 exp 76 ------- 0 3.0 0.0 5 5
r 2.571578 2 0 exp 76 ------- 0 3.0 0.0 5 5
- 2.584286 3 -1 exp 53 ------- 0 3.0 0.0 10 10
r 2.598072 -1 2 exp 53 ------- 0 3.0 0.0 6 6
r 2.624572 -1 2 exp 53 ------- 0 3.0 0.0 6 6
+ 2.624572 2 0 exp 76 ------- 0 3.0 0.0 6 6
- 2.624572 2 0 exp 76 ------- 0 3.0 0.0 6 6
r 2.624578 2 0 exp 76 ------- 0 3.0 0.0 6 6
r 2.651072 -1 2 exp 53 ------- 0 3.0 0.0 7 7
h 2.664663 3 -1 exp 76 ------- 0 3.0 0.0 11 11
+ 2.664663 3 -1 exp 53 ------- 0 3.0 0.0 11 11
+ 2.664663 3 -1 exp 53 ------- 0 3.0 0.0 11 11
r 2.677572 -1 2 exp 53 ------- 0 3.0 0.0 7 7
+ 2.677572 2 0 exp 76 ------- 0 3.0 0.0 7 7
- 2.677572 2 0 exp 76 ------- 0 3.0 0.0 7 7
r 2.677578 2 0 exp 76 ------- 0 3.0 0.0 7 7
- 2.690286 3 -1 exp 53 ------- 0 3.0 0.0 11 11
r 2.704072 -1 2 exp 53 ------- 0 3.0 0.0 8 8
h 2.704663 3 -1 exp 76 ------- 0 3.0 0.0 12 12
+ 2.704663 3 -1 exp 53 ------- 0 3.0 0.0 12 12
+ 2.704663 3 -1 exp 53 ------- 0 3.0 0.0 12 12
- 2.716786 3 -1 exp 53 ------- 0 3.0 0.0 11 11
r 2.730572 -1 2 exp 53 ------- 0 3.0 0.0 8 8
+ 2.730572 2 0 exp 76 ------- 0 3.0 0.0 8 8
- 2.730572 2 0 exp 76 ------- 0 3.0 0.0 8 8
r 2.730578 2 0 exp 76 ------- 0 3.0 0.0 8 8
- 2.743286 3 -1 exp 53 ------- 0 3.0 0.0 12 12
h 2.744663 3 -1 exp 76 ------- 0 3.0 0.0 13 13
+ 2.744663 3 -1 exp 53 ------- 0 3.0 0.0 13 13
+ 2.744663 3 -1 exp 53 ------- 0 3.0 0.0 13 13
r 2.757072 -1 2 exp 53 ------- 0 3.0 0.0 9 9
- 2.769786 3 -1 exp 53 ------- 0 3.0 0.0 12 12
r 2.783572 -1 2 exp 53 ------- 0 3.0 0.0 9 9
+ 2.783572 2 0 exp 76 ------- 0 3.0 0.0 9 9
- 2.783572 2 0 exp 76 ------- 0 3.0 0.0 9 9
r 2.783578 2 0 exp 76 ------- 0 3.0 0.0 9 9
h 2.784663 3 -1 exp 76 ------- 0 3.0 0.0 14 14
+ 2.784663 3 -1 exp 53 ------- 0 3.0 0.0 14 14
+ 2.784663 3 -1 exp 53 ------- 0 3.0 0.0 14 14
- 2.796286 3 -1 exp 53 ------- 0 3.0 0.0 13 13
r 2.810072 -1 2 exp 53 ------- 0 3.0 0.0 10 10
- 2.822786 3 -1 exp 53 ------- 0 3.0 0.0 13 13
h 2.824663 3 -1 exp 76 ------- 0 3.0 0.0 15 15
+ 2.824663 3 -1 exp 53 ------- 0 3.0 0.0 15 15
+ 2.824663 3 -1 exp 53 ------- 0 3.0 0.0 15 15
r 2.836572 -1 2 exp 53 ------- 0 3.0 0.0 10 10
+ 2.836572 2 0 exp 76 ------- 0 3.0 0.0 10 10
- 2.836572 2 0 exp 76 ------- 0 3.0 0.0 10 10
r 2.836578 2 0 exp 76 ------- 0 3.0 0.0 10 10
- 2.849286 3 -1 exp 53 ------- 0 3.0 0.0 14 14
h 2.864663 3 -1 exp 76 ------- 0 3.0 0.0 16 16
+ 2.864663 3 -1 exp 53 ------- 0 3.0 0.0 16 16
+ 2.864663 3 -1 exp 53 ------- 0 3.0 0.0 16 16
- 2.875786 3 -1 exp 53 ------- 0 3.0 0.0 14 14
- 2.902286 3 -1 exp 53 ------- 0 3.0 0.0 15 15
h 2.904663 3 -1 exp 76 ------- 0 3.0 0.0 17 17
+ 2.904663 3 -1 exp 53 ------- 0 3.0 0.0 17 17
+ 2.904663 3 -1 exp 53 ------- 0 3.0 0.0 17 17
- 2.928786 3 -1 exp 53 ------- 0 3.0 0.0 15 15
r 2.942572 -1 2 exp 53 ------- 0 3.0 0.0 11 11
h 2.944663 3 -1 exp 76 ------- 0 3.0 0.0 18 18
+ 2.944663 3 -1 exp 53 ------- 0 3.0 0.0 18 18
+ 2.944663 3 -1 exp 53 ------- 0 3.0 0.0 18 18
- 2.955286 3 -1 exp 53 ------- 0 3.0 0.0 16 16
r 2.969072 -1 2 exp 53 ------- 0 3.0 0.0 11 11
+ 2.969072 2 0 exp 76 ------- 0 3.0 0.0 11 11
- 2.969072 2 0 exp 76 ------- 0 3.0 0.0 11 11
r 2.969078 2 0 exp 76 ------- 0 3.0 0.0 11 11
- 2.981786 3 -1 exp 53 ------- 0 3.0 0.0 16 16
h 2.984663 3 -1 exp 76 ------- 0 3.0 0.0 19 19
+ 2.984663 3 -1 exp 53 ------- 0 3.0 0.0 19 19
+ 2.984663 3 -1 exp 53 ------- 0 3.0 0.0 19 19
r 2.995572 -1 2 exp 53 ------- 0 3.0 0.0 12 12
- 3.008286 3 -1 exp 53 ------- 0 3.0 0.0 17 17
r 3.022072 -1 2 exp 53 ------- 0 3.0 0.0 12 12
+ 3.022072 2 0 exp 76 ------- 0 3.0 0.0 12 12
- 3.022072 2 0 exp 76 ------- 0 3.0 0.0 12 12
r 3.022078 2 0 exp 76 ------- 0 3.0 0.0 12 12
h 3.024663 3 -1 exp 76 ------- 0 3.0 0.0 20 20
+ 3.024663 3 -1 exp 53 ------- 0 3.0 0.0 20 20
+ 3.024663 3 -1 exp 53 ------- 0 3.0 0.0 20 20
- 3.034786 3 -1 exp 53 ------- 0 3.0 0.0 17 17
r 3.048572 -1 2 exp 53 ------- 0 3.0 0.0 13 13
- 3.061286 3 -1 exp 53 ------- 0 3.0 0.0 18 18
h 3.064663 3 -1 exp 76 ------- 0 3.0 0.0 21 21
+ 3.064663 3 -1 exp 53 ------- 0 3.0 0.0 21 21
+ 3.064663 3 -1 exp 53 ------- 0 3.0 0.0 21 21
r 3.075072 -1 2 exp 53 ------- 0 3.0 0.0 13 13
+ 3.075072 2 0 exp 76 ------- 0 3.0 0.0 13 13
- 3.075072 2 0 exp 76 ------- 0 3.0 0.0 13 13
r 3.075078 2 0 exp 76 ------- 0 3.0 0.0 13 13
- 3.087786 3 -1 exp 53 ------- 0 3.0 0.0 18 18
r 3.101572 -1 2 exp 53 ------- 0 3.0 0.0 14 14
h 3.104663 3 -1 exp 76 ------- 0 3.0 0.0 22 22
+ 3.104663 3 -1 exp 53 ------- 0 3.0 0.0 22 22
+ 3.104663 3 -1 exp 53 ------- 0 3.0 0.0 22 22
- 3.114286 3 -1 exp 53 ------- 0 3.0 0.0 19 19
r 3.128072 -1 2 exp 53 ------- 0 3.0 0.0 14 14
+ 3.128072 2 0 exp 76 ------- 0 3.0 0.0 14 14
- 3.128072 2 0 exp 76 ------- 0 3.0 0.0 14 14
r 3.128078 2 0 exp 76 ------- 0 3.0 0.0 14 14
- 3.140786 3 -1 exp 53 ------- 0 3.0 0.0 19 19
h 3.144663 3 -1 exp 76 ------- 0 3.0 0.0 23 23
+ 3.144663 3 -1 exp 53 ------- 0 3.0 0.0 23 23
+ 3.144663 3 -1 exp 53 ------- 0 3.0 0.0 23 23
r 3.154572 -1 2 exp 53 ------- 0 3.0 0.0 15 15
- 3.167286 3 -1 exp 53 ------- 0 3.0 0.0 20 20
r 3.181072 -1 2 exp 53 ------- 0 3.0 0.0 15 15
+ 3.181072 2 0 exp 76 ------- 0 3.0 0.0 15 15
- 3.181072 2 0 exp 76 ------- 0 3.0 0.0 15 15
r 3.181078 2 0 exp 76 ------- 0 3.0 0.0 15 15
h 3.184663 3 -1 exp 76 ------- 0 3.0 0.0 24 24
+ 3.184663 3 -1 exp 53 ------- 0 3.0 0.0 24 24
+ 3.184663 3 -1 exp 53 ------- 0 3.0 0.0 24 24
- 3.193786 3 -1 exp 53 ------- 0 3.0 0.0 20 20
r 3.207572 -1 2 exp 53 ------- 0 3.0 0.0 16 16
- 3.220286 3 -1 exp 53 ------- 0 3.0 0.0 21 21
h 3.224663 3 -1 exp 76 ------- 0 3.0 0.0 25 25
+ 3.224663 3 -1 exp 53 ------- 0 3.0 0.0 25 25
+ 3.224663 3 -1 exp 53 ------- 0 3.0 0.0 25 25
r 3.234072 -1 2 exp 53 ------- 0 3.0 0.0 16 16
+ 3.234072 2 0 exp 76 ------- 0 3.0 0.0 16 16
- 3.234072 2 0 exp 76 ------- 0 3.0 0.0 16 16
r 3.234078 2 0 exp 76 ------- 0 3.0 0.0 16 16
- 3.246786 3 -1 exp 53 ------- 0 3.0 0.0 21 21
r 3.260572 -1 2 exp 53 ------- 0 3.0 0.0 17 17
h 3.264663 3 -1 exp 76 ------- 0 3.0 0.0 26 26
+ 3.264663 3 -1 exp 53 ------- 0 3.0 0.0 26 26
+ 3.264663 3 -1 exp 53 ------- 0 3.0 0.0 26 26
- 3.273286 3 -1 exp 53 ------- 0 3.0 0.0 22 22
r 3.287072 -1 2 exp 53 ------- 0 3.0 0.0 17 17
+ 3.287072 2 0 exp 76 ------- 0 3.0 0.0 17 17
- 3.287072 2 0 exp 76 ------- 0 3.0 0.0 17 17
r 3.287078 2 0 exp 76 ------- 0 3.0 0.0 17 17
- 3.299786 3 -1 exp 53 ------- 0 3.0 0.0 22 22
h 3.304663 3 -1 exp 76 ------- 0 3.0 0.0 27 27
+ 3.304663 3 -1 exp 53 ------- 0 3.0 0.0 27 27
+ 3.304663 3 -1 exp 53 ------- 0 3.0 0.0 27 27
r 3.313572 -1 2 exp 53 ------- 0 3.0 0.0 18 18
- 3.326286 3 -1 exp 53 ------- 0 3.0 0.0 23 23
r 3.340072 -1 2 exp 53 ------- 0 3.0 0.0 18 18
+ 3.340072 2 0 exp 76 ------- 0 3.0 0.0 18 18
- 3.340072 2 0 exp 76 ------- 0 3.0 0.0 18 18
r 3.340078 2 0 exp 76 ------- 0 3.0 0.0 18 18
h 3.344663 3 -1 exp 76 ------- 0 3.0 0.0 28 28
+ 3.344663 3 -1 exp 53 ------- 0 3.0 0.0 28 28
+ 3.344663 3 -1 exp 53 ------- 0 3.0 0.0 28 28
- 3.352786 3 -1 exp 53 ------- 0 3.0 0.0 23 23
r 3.366572 -1 2 exp 53 ------- 0 3.0 0.0 19 19
- 3.379286 3 -1 exp 53 ------- 0 3.0 0.0 24 24
h 3.384663 3 -1 exp 76 ------- 0 3.0 0.0 29 29
+ 3.384663 3 -1 exp 53 ------- 0 3.0 0.0 29 29
+ 3.384663 3 -1 exp 53 ------- 0 3.0 0.0 29 29
r 3.393072 -1 2 exp 53 ------- 0 3.0 0.0 19 19
+ 3.393072 2 0 exp 76 ------- 0 3.0 0.0 19 19
- 3.393072 2 0 exp 76 ------- 0 3.0 0.0 19 19
r 3.393078 2 0 exp 76 ------- 0 3.0 0.0 19 19
- 3.405786 3 -1 exp 53 ------- 0 3.0 0.0 24 24
r 3.419572 -1 2 exp 53 ------- 0 3.0 0.0 20 20
h 3.424663 3 -1 exp 76 ------- 0 3.0 0.0 30 30
+ 3.424663 3 -1 exp 53 ------- 0 3.0 0.0 30 30
+ 3.424663 3 -1 exp 53 ------- 0 3.0 0.0 30 30
- 3.432286 3 -1 exp 53 ------- 0 3.0 0.0 25 25
r 3.446072 -1 2 exp 53 ------- 0 3.0 0.0 20 20
+ 3.446072 2 0 exp 76 ------- 0 3.0 0.0 20 20
- 3.446072 2 0 exp 76 ------- 0 3.0 0.0 20 20
r 3.446078 2 0 exp 76 ------- 0 3.0 0.0 20 20
- 3.458786 3 -1 exp 53 ------- 0 3.0 0.0 25 25
h 3.464663 3 -1 exp 76 ------- 0 3.0 0.0 31 31
+ 3.464663 3 -1 exp 53 ------- 0 3.0 0.0 31 31
+ 3.464663 3 -1 exp 53 ------- 0 3.0 0.0 31 31
r 3.472572 -1 2 exp 53 ------- 0 3.0 0.0 21 21
- 3.485286 3 -1 exp 53 ------- 0 3.0 0.0 26 26
r 3.499072 -1 2 exp 53 ------- 0 3.0 0.0 21 21
+ 3.499072 2 0 exp 76 ------- 0 3.0 0.0 21 21
- 3.499072 2 0 exp 76 ------- 0 3.0 0.0 21 21
r 3.499078 2 0 exp 76 ------- 0 3.0 0.0 21 21
h 3.504663 3 -1 exp 76 ------- 0 3.0 0.0 32 32
+ 3.504663 3 -1 exp 53 ------- 0 3.0 0.0 32 32
+ 3.504663 3 -1 exp 53 ------- 0 3.0 0.0 32 32
- 3.511786 3 -1 exp 53 ------- 0 3.0 0.0 26 26
r 3.525572 -1 2 exp 53 ------- 0 3.0 0.0 22 22
- 3.538286 3 -1 exp 53 ------- 0 3.0 0.0 27 27
h 3.544663 3 -1 exp 76 ------- 0 3.0 0.0 33 33
+ 3.544663 3 -1 exp 53 ------- 0 3.0 0.0 33 33
+ 3.544663 3 -1 exp 53 ------- 0 3.0 0.0 33 33
r 3.552072 -1 2 exp 53 ------- 0 3.0 0.0 22 22
+ 3.552072 2 0 exp 76 ------- 0 3.0 0.0 22 22
- 3.552072 2 0 exp 76 ------- 0 3.0 0.0 22 22
r 3.552078 2 0 exp 76 ------- 0 3.0 0.0 22 22
- 3.564786 3 -1 exp 53 ------- 0 3.0 0.0 27 27
r 3.578572 -1 2 exp 53 ------- 0 3.0 0.0 23 23
h 3.584663 3 -1 exp 76 ------- 0 3.0 0.0 34 34
+ 3.584663 3 -1 exp 53 ------- 0 3.0 0.0 34 34
+ 3.584663 3 -1 exp 53 ------- 0 3.0 0.0 34 34
- 3.591286 3 -1 exp 53 ------- 0 3.0 0.0 28 28
r 3.605072 -1 2 exp 53 ------- 0 3.0 0.0 23 23
+ 3.605072 2 0 exp 76 ------- 0 3.0 0.0 23 23
- 3.605072 2 0 exp 76 ------- 0 3.0 0.0 23 23
r 3.605078 2 0 exp 76 ------- 0 3.0 0.0 23 23
- 3.617786 3 -1 exp 53 ------- 0 3.0 0.0 28 28
r 3.631572 -1 2 exp 53 ------- 0 3.0 0.0 24 24
- 3.644286 3 -1 exp 53 ------- 0 3.0 0.0 29 29
r 3.658072 -1 2 exp 53 ------- 0 3.0 0.0 24 24
+ 3.658072 2 0 exp 76 ------- 0 3.0 0.0 24 24
- 3.658072 2 0 exp 76 ------- 0 3.0 0.0 24 24
r 3.658078 2 0 exp 76 ------- 0 3.0 0.0 24 24
- 3.670786 3 -1 exp 53 ------- 0 3.0 0.0 29 29
r 3.684572 -1 2 exp 53 ------- 0 3.0 0.0 25 25
- 3.697286 3 -1 exp 53 ------- 0 3.0 0.0 30 30
r 3.711072 -1 2 exp 53 ------- 0 3.0 0.0 25 25
+ 3.711072 2 0 exp 76 ------- 0 3.0 0.0 25 25
- 3.711072 2 0 exp 76 ------- 0 3.0 0.0 25 25
r 3.711078 2 0 exp 76 ------- 0 3.0 0.0 25 25
- 3.723786 3 -1 exp 53 ------- 0 3.0 0.0 30 30
r 3.737572 -1 2 exp 53 ------- 0 3.0 0.0 26 26
- 3.750286 3 -1 exp 53 ------- 0 3.0 0.0 31 31
r 3.764072 -1 2 exp 53 ------- 0 3.0 0.0 26 26
+ 3.764072 2 0 exp 76 ------- 0 3.0 0.0 26 26
- 3.764072 2 0 exp 76 ------- 0 3.0 0.0 26 26
r 3.764078 2 0 exp 76 ------- 0 3.0 0.0 26 26
- 3.776786 3 -1 exp 53 ------- 0 3.0 0.0 31 31
r 3.790572 -1 2 exp 53 ------- 0 3.0 0.0 27 27
- 3.803286 3 -1 exp 53 ------- 0 3.0 0.0 32 32
r 3.817072 -1 2 exp 53 ------- 0 3.0 0.0 27 27
+ 3.817072 2 0 exp 76 ------- 0 3.0 0.0 27 27
- 3.817072 2 0 exp 76 ------- 0 3.0 0.0 27 27
r 3.817078 2 0 exp 76 ------- 0 3.0 0.0 27 27
- 3.829786 3 -1 exp 53 ------- 0 3.0 0.0 32 32
r 3.843572 -1 2 exp 53 ------- 0 3.0 0.0 28 28
- 3.856286 3 -1 exp 53 ------- 0 3.0 0.0 33 33
r 3.870072 -1 2 exp 53 ------- 0 3.0 0.0 28 28
+ 3.870072 2 0 exp 76 ------- 0 3.0 0.0 28 28
- 3.870072 2 0 exp 76 ------- 0 3.0 0.0 28 28
r 3.870078 2 0 exp 76 ------- 0 3.0 0.0 28 28
- 3.882786 3 -1 exp 53 ------- 0 3.0 0.0 33 33
r 3.896572 -1 2 exp 53 ------- 0 3.0 0.0 29 29
- 3.909286 3 -1 exp 53 ------- 0 3.0 0.0 34 34
r 3.923072 -1 2 exp 53 ------- 0 3.0 0.0 29 29
+ 3.923072 2 0 exp 76 ------- 0 3.0 0.0 29 29
- 3.923072 2 0 exp 76 ------- 0 3.0 0.0 29 29
r 3.923078 2 0 exp 76 ------- 0 3.0 0.0 29 29
- 3.935786 3 -1 exp 53 ------- 0 3.0 0.0 34 34
r 3.949572 -1 2 exp 53 ------- 0 3.0 0.0 30 30
r 3.976072 -1 2 exp 53 ------- 0 3.0 0.0 30 30
+ 3.976072 2 0 exp 76 ------- 0 3.0 0.0 30 30
- 3.976072 2 0 exp 76 ------- 0 3.0 0.0 30 30
r 3.976078 2 0 exp 76 ------- 0 3.0 0.0 30 30
r 4.002572 -1 2 exp 53 ------- 0 3.0 0.0 31 31
r 4.029072 -1 2 exp 53 ------- 0 3.0 0.0 31 31
+ 4.029072 2 0 exp 76 ------- 0 3.0 0.0 31 31
- 4.029072 2 0 exp 76 ------- 0 3.0 0.0 31 31
r 4.029078 2 0 exp 76 ------- 0 3.0 0.0 31 31
r 4.055572 -1 2 exp 53 ------- 0 3.0 0.0 32 32
r 4.082072 -1 2 exp 53 ------- 0 3.0 0.0 32 32
+ 4.082072 2 0 exp 76 ------- 0 3.0 0.0 32 32
- 4.082072 2 0 exp 76 ------- 0 3.0 0.0 32 32
r 4.082078 2 0 exp 76 ------- 0 3.0 0.0 32 32
h 4.094208 3 -1 exp 76 ------- 0 3.0 0.0 35 35
+ 4.094208 3 -1 exp 53 ------- 0 3.0 0.0 35 35
+ 4.094208 3 -1 exp 53 ------- 0 3.0 0.0 35 35
- 4.094786 3 -1 exp 53 ------- 0 3.0 0.0 35 35
r 4.108572 -1 2 exp 53 ------- 0 3.0 0.0 33 33
- 4.121286 3 -1 exp 53 ------- 0 3.0 0.0 35 35
h 4.134208 3 -1 exp 76 ------- 0 3.0 0.0 36 36
+ 4.134208 3 -1 exp 53 ------- 0 3.0 0.0 36 36
+ 4.134208 3 -1 exp 53 ------- 0 3.0 0.0 36 36
r 4.135072 -1 2 exp 53 ------- 0 3.0 0.0 33 33
+ 4.135072 2 0 exp 76 ------- 0 3.0 0.0 33 33
- 4.135072 2 0 exp 76 ------- 0 3.0 0.0 33 33
r 4.135078 2 0 exp 76 ------- 0 3.0 0.0 33 33
- 4.147786 3 -1 exp 53 ------- 0 3.0 0.0 36 36
r 4.161572 -1 2 exp 53 ------- 0 3.0 0.0 34 34
- 4.174286 3 -1 exp 53 ------- 0 3.0 0.0 36 36
r 4.188072 -1 2 exp 53 ------- 0 3.0 0.0 34 34
+ 4.188072 2 0 exp 76 ------- 0 3.0 0.0 34 34
- 4.188072 2 0 exp 76 ------- 0 3.0 0.0 34 34
r 4.188078 2 0 exp 76 ------- 0 3.0 0.0 34 34
r 4.347072 -1 2 exp 53 ------- 0 3.0 0.0 35 35
r 4.373572 -1 2 exp 53 ------- 0 3.0 0.0 35 35
+ 4.373572 2 0 exp 76 ------- 0 3.0 0.0 35 35
- 4.373572 2 0 exp 76 ------- 0 3.0 0.0 35 35
r 4.373578 2 0 exp 76 ------- 0 3.0 0.0 35 35
h 4.380961 3 -1 exp 76 ------- 0 3.0 0.0 37 37
+ 4.380961 3 -1 exp 53 ------- 0 3.0 0.0 37 37
+ 4.380961 3 -1 exp 53 ------- 0 3.0 0.0 37 37
- 4.386286 3 -1 exp 53 ------- 0 3.0 0.0 37 37
r 4.400072 -1 2 exp 53 ------- 0 3.0 0.0 36 36
- 4.412786 3 -1 exp 53 ------- 0 3.0 0.0 37 37
r 4.426572 -1 2 exp 53 ------- 0 3.0 0.0 36 36
+ 4.426572 2 0 exp 76 ------- 0 3.0 0.0 36 36
- 4.426572 2 0 exp 76 ------- 0 3.0 0.0 36 36
r 4.426578 2 0 exp 76 ------- 0 3.0 0.0 36 36
r 4.638572 -1 2 exp 53 ------- 0 3.0 0.0 37 37
r 4.665072 -1 2 exp 53 ------- 0 3.0 0.0 37 37
+ 4.665072 2 0 exp 76 ------- 0 3.0 0.0 37 37
- 4.665072 2 0 exp 76 ------- 0 3.0 0.0 37 37
r 4.665078 2 0 exp 76 ------- 0 3.0 0.0 37 37
h 5.322759 3 -1 exp 76 ------- 0 3.0 0.0 38 38
+ 5.322759 3 -1 exp 53 ------- 0 3.0 0.0 38 38
+ 5.322759 3 -1 exp 53 ------- 0 3.0 0.0 38 38
- 5.340286 3 -1 exp 53 ------- 0 3.0 0.0 38 38
h 5.362759 3 -1 exp 76 ------- 0 3.0 0.0 39 39
+ 5.362759 3 -1 exp 53 ------- 0 3.0 0.0 39 39
+ 5.362759 3 -1 exp 53 ------- 0 3.0 0.0 39 39
- 5.366786 3 -1 exp 53 ------- 0 3.0 0.0 38 38
- 5.393286 3 -1 exp 53 ------- 0 3.0 0.0 39 39
h 5.402759 3 -1 exp 76 ------- 0 3.0 0.0 40 40
+ 5.402759 3 -1 exp 53 ------- 0 3.0 0.0 40 40
+ 5.402759 3 -1 exp 53 ------- 0 3.0 0.0 40 40
- 5.419786 3 -1 exp 53 ------- 0 3.0 0.0 39 39
h 5.442759 3 -1 exp 76 ------- 0 3.0 0.0 41 41
+ 5.442759 3 -1 exp 53 ------- 0 3.0 0.0 41 41
+ 5.442759 3 -1 exp 53 ------- 0 3.0 0.0 41 41
- 5.446286 3 -1 exp 53 ------- 0 3.0 0.0 40 40
- 5.472786 3 -1 exp 53 ------- 0 3.0 0.0 40 40
h 5.482759 3 -1 exp 76 ------- 0 3.0 0.0 42 42
+ 5.482759 3 -1 exp 53 ------- 0 3.0 0.0 42 42
+ 5.482759 3 -1 exp 53 ------- 0 3.0 0.0 42 42
- 5.499286 3 -1 exp 53 ------- 0 3.0 0.0 41 41
h 5.522759 3 -1 exp 76 ------- 0 3.0 0.0 43 43
+ 5.522759 3 -1 exp 53 ------- 0 3.0 0.0 43 43
+ 5.522759 3 -1 exp 53 ------- 0 3.0 0.0 43 43
- 5.525786 3 -1 exp 53 ------- 0 3.0 0.0 41 41
- 5.552286 3 -1 exp 53 ------- 0 3.0 0.0 42 42
h 5.562759 3 -1 exp 76 ------- 0 3.0 0.0 44 44
+ 5.562759 3 -1 exp 53 ------- 0 3.0 0.0 44 44
+ 5.562759 3 -1 exp 53 ------- 0 3.0 0.0 44 44
- 5.578786 3 -1 exp 53 ------- 0 3.0 0.0 42 42
r 5.592572 -1 2 exp 53 ------- 0 3.0 0.0 38 38
h 5.602759 3 -1 exp 76 ------- 0 3.0 0.0 45 45
+ 5.602759 3 -1 exp 53 ------- 0 3.0 0.0 45 45
+ 5.602759 3 -1 exp 53 ------- 0 3.0 0.0 45 45
- 5.605286 3 -1 exp 53 ------- 0 3.0 0.0 43 43
r 5.619072 -1 2 exp 53 ------- 0 3.0 0.0 38 38
+ 5.619072 2 0 exp 76 ------- 0 3.0 0.0 38 38
- 5.619072 2 0 exp 76 ------- 0 3.0 0.0 38 38
r 5.619078 2 0 exp 76 ------- 0 3.0 0.0 38 38
- 5.631786 3 -1 exp 53 ------- 0 3.0 0.0 43 43
r 5.645572 -1 2 exp 53 ------- 0 3.0 0.0 39 39
- 5.658286 3 -1 exp 53 ------- 0 3.0 0.0 44 44
r 5.672072 -1 2 exp 53 ------- 0 3.0 0.0 39 39
+ 5.672072 2 0 exp 76 ------- 0 3.0 0.0 39 39
- 5.672072 2 0 exp 76 ------- 0 3.0 0.0 39 39
r 5.672078 2 0 exp 76 ------- 0 3.0 0.0 39 39
- 5.684786 3 -1 exp 53 ------- 0 3.0 0.0 44 44
r 5.698572 -1 2 exp 53 ------- 0 3.0 0.0 40 40
- 5.711286 3 -1 exp 53 ------- 0 3.0 0.0 45 45
r 5.725072 -1 2 exp 53 ------- 0 3.0 0.0 40 40
+ 5.725072 2 0 exp 76 ------- 0 3.0 0.0 40 40
- 5.725072 2 0 exp 76 ------- 0 3.0 0.0 40 40
r 5.725078 2 0 exp 76 ------- 0 3.0 0.0 40 40
- 5.737786 3 -1 exp 53 ------- 0 3.0 0.0 45 45
r 5.751572 -1 2 exp 53 ------- 0 3.0 0.0 41 41
r 5.778072 -1 2 exp 53 ------- 0 3.0 0.0 41 41
+ 5.778072 2 0 exp 76 ------- 0 3.0 0.0 41 41
- 5.778072 2 0 exp 76 ------- 0 3.0 0.0 41 41
r 5.778078 2 0 exp 76 ------- 0 3.0 0.0 41 41
r 5.804572 -1 2 exp 53 ------- 0 3.0 0.0 42 42
r 5.831072 -1 2 exp 53 ------- 0 3.0 0.0 42 42
+ 5.831072 2 0 exp 76 ------- 0 3.0 0.0 42 42
- 5.831072 2 0 exp 76 ------- 0 3.0 0.0 42 42
r 5.831078 2 0 exp 76 ------- 0 3.0 0.0 42 42
r 5.857572 -1 2 exp 53 ------- 0 3.0 0.0 43 43
r 5.884072 -1 2 exp 53 ------- 0 3.0 0.0 43 43
+ 5.884072 2 0 exp 76 ------- 0 3.0 0.0 43 43
- 5.884072 2 0 exp 76 ------- 0 3.0 0.0 43 43
r 5.884078 2 0 exp 76 ------- 0 3.0 0.0 43 43
r 5.910572 -1 2 exp 53 ------- 0 3.0 0.0 44 44
r 5.937072 -1 2 exp 53 ------- 0 3.0 0.0 44 44
+ 5.937072 2 0 exp 76 ------- 0 3.0 0.0 44 44
- 5.937072 2 0 exp 76 ------- 0 3.0 0.0 44 44
r 5.937078 2 0 exp 76 ------- 0 3.0 0.0 44 44
r 5.963572 -1 2 exp 53 ------- 0 3.0 0.0 45 45
r 5.990072 -1 2 exp 53 ------- 0 3.0 0.0 45 45
+ 5.990072 2 0 exp 76 ------- 0 3.0 0.0 45 45
- 5.990072 2 0 exp 76 ------- 0 3.0 0.0 45 45
r 5.990078 2 0 exp 76 ------- 0 3.0 0.0 45 45
h 6.916734 3 -1 exp 76 ------- 0 3.0 0.0 46 46
+ 6.916734 3 -1 exp 53 ------- 0 3.0 0.0 46 46
+ 6.916734 3 -1 exp 53 ------- 0 3.0 0.0 46 46
- 6.930286 3 -1 exp 53 ------- 0 3.0 0.0 46 46
h 6.956734 3 -1 exp 76 ------- 0 3.0 0.0 47 47
+ 6.956734 3 -1 exp 53 ------- 0 3.0 0.0 47 47
+ 6.956734 3 -1 exp 53 ------- 0 3.0 0.0 47 47
- 6.956786 3 -1 exp 53 ------- 0 3.0 0.0 46 46
- 6.983286 3 -1 exp 53 ------- 0 3.0 0.0 47 47
h 6.996734 3 -1 exp 76 ------- 0 3.0 0.0 48 48
+ 6.996734 3 -1 exp 53 ------- 0 3.0 0.0 48 48
+ 6.996734 3 -1 exp 53 ------- 0 3.0 0.0 48 48
- 7.009786 3 -1 exp 53 ------- 0 3.0 0.0 47 47
- 7.036286 3 -1 exp 53 ------- 0 3.0 0.0 48 48
h 7.036734 3 -1 exp 76 ------- 0 3.0 0.0 49 49
+ 7.036734 3 -1 exp 53 ------- 0 3.0 0.0 49 49
+ 7.036734 3 -1 exp 53 ------- 0 3.0 0.0 49 49
- 7.062786 3 -1 exp 53 ------- 0 3.0 0.0 48 48
h 7.076734 3 -1 exp 76 ------- 0 3.0 0.0 50 50
+ 7.076734 3 -1 exp 53 ------- 0 3.0 0.0 50 50
+ 7.076734 3 -1 exp 53 ------- 0 3.0 0.0 50 50
- 7.089286 3 -1 exp 53 ------- 0 3.0 0.0 49 49
- 7.115786 3 -1 exp 53 ------- 0 3.0 0.0 49 49
h 7.116734 3 -1 exp 76 ------- 0 3.0 0.0 51 51
+ 7.116734 3 -1 exp 53 ------- 0 3.0 0.0 51 51
+ 7.116734 3 -1 exp 53 ------- 0 3.0 0.0 51 51
- 7.142286 3 -1 exp 53 ------- 0 3.0 0.0 50 50
h 7.156734 3 -1 exp 76 ------- 0 3.0 0.0 52 52
+ 7.156734 3 -1 exp 53 ------- 0 3.0 0.0 52 52
+ 7.156734 3 -1 exp 53 ------- 0 3.0 0.0 52 52
- 7.168786 3 -1 exp 53 ------- 0 3.0 0.0 50 50
r 7.182572 -1 2 exp 53 ------- 0 3.0 0.0 46 46
- 7.195286 3 -1 exp 53 ------- 0 3.0 0.0 51 51
h 7.196734 3 -1 exp 76 ------- 0 3.0 0.0 53 53
+ 7.196734 3 -1 exp 53 ------- 0 3.0 0.0 53 53
+ 7.196734 3 -1 exp 53 ------- 0 3.0 0.0 53 53
r 7.209072 -1 2 exp 53 ------- 0 3.0 0.0 46 46
+ 7.209072 2 0 exp 76 ------- 0 3.0 0.0 46 46
- 7.209072 2 0 exp 76 ------- 0 3.0 0.0 46 46
r 7.209078 2 0 exp 76 ------- 0 3.0 0.0 46 46
- 7.221786 3 -1 exp 53 ------- 0 3.0 0.0 51 51
r 7.235572 -1 2 exp 53 ------- 0 3.0 0.0 47 47
h 7.236734 3 -1 exp 76 ------- 0 3.0 0.0 54 54
+ 7.236734 3 -1 exp 53 ------- 0 3.0 0.0 54 54
+ 7.236734 3 -1 exp 53 ------- 0 3.0 0.0 54 54
- 7.248286 3 -1 exp 53 ------- 0 3.0 0.0 52 52
r 7.262072 -1 2 exp 53 ------- 0 3.0 0.0 47 47
+ 7.262072 2 0 exp 76 ------- 0 3.0 0.0 47 47
- 7.262072 2 0 exp 76 ------- 0 3.0 0.0 47 47
r 7.262078 2 0 exp 76 ------- 0 3.0 0.0 47 47
- 7.274786 3 -1 exp 53 ------- 0 3.0 0.0 52 52
h 7.276734 3 -1 exp 76 ------- 0 3.0 0.0 55 55
+ 7.276734 3 -1 exp 53 ------- 0 3.0 0.0 55 55
+ 7.276734 3 -1 exp 53 ------- 0 3.0 0.0 55 55
r 7.288572 -1 2 exp 53 ------- 0 3.0 0.0 48 48
- 7.301286 3 -1 exp 53 ------- 0 3.0 0.0 53 53
r 7.315072 -1 2 exp 53 ------- 0 3.0 0.0 48 48
+ 7.315072 2 0 exp 76 ------- 0 3.0 0.0 48 48
- 7.315072 2 0 exp 76 ------- 0 3.0 0.0 48 48
r 7.315078 2 0 exp 76 ------- 0 3.0 0.0 48 48
h 7.316734 3 -1 exp 76 ------- 0 3.0 0.0 56 56
+ 7.316734 3 -1 exp 53 ------- 0 3.0 0.0 56 56
+ 7.316734 3 -1 exp 53 ------- 0 3.0 0.0 56 56
- 7.327786 3 -1 exp 53 ------- 0 3.0 0.0 53 53
r 7.341572 -1 2 exp 53 ------- 0 3.0 0.0 49 49
- 7.354286 3 -1 exp 53 ------- 0 3.0 0.0 54 54
h 7.356734 3 -1 exp 76 ------- 0 3.0 0.0 57 57
+ 7.356734 3 -1 exp 53 ------- 0 3.0 0.0 57 57
+ 7.356734 3 -1 exp 53 ------- 0 3.0 0.0 57 57
r 7.368072 -1 2 exp 53 ------- 0 3.0 0.0 49 49
+ 7.368072 2 0 exp 76 ------- 0 3.0 0.0 49 49
- 7.368072 2 0 exp 76 ------- 0 3.0 0.0 49 49
r 7.368078 2 0 exp 76 ------- 0 3.0 0.0 49 49
- 7.380786 3 -1 exp 53 ------- 0 3.0 0.0 54 54
r 7.394572 -1 2 exp 53 ------- 0 3.0 0.0 50 50
h 7.396734 3 -1 exp 76 ------- 0 3.0 0.0 58 58
+ 7.396734 3 -1 exp 53 ------- 0 3.0 0.0 58 58
+ 7.396734 3 -1 exp 53 ------- 0 3.0 0.0 58 58
- 7.407286 3 -1 exp 53 ------- 0 3.0 0.0 55 55
r 7.421072 -1 2 exp 53 ------- 0 3.0 0.0 50 50
+ 7.421072 2 0 exp 76 ------- 0 3.0 0.0 50 50
- 7.421072 2 0 exp 76 ------- 0 3.0 0.0 50 50
r 7.421078 2 0 exp 76 ------- 0 3.0 0.0 50 50
- 7.433786 3 -1 exp 53 ------- 0 3.0 0.0 55 55
r 7.447572 -1 2 exp 53 ------- 0 3.0 0.0 51 51
- 7.460286 3 -1 exp 53 ------- 0 3.0 0.0 56 56
r 7.474072 -1 2 exp 53 ------- 0 3.0 0.0 51 51
+ 7.474072 2 0 exp 76 ------- 0 3.0 0.0 51 51
- 7.474072 2 0 exp 76 ------- 0 3.0 0.0 51 51
r 7.474078 2 0 exp 76 ------- 0 3.0 0.0 51 51
- 7.486786 3 -1 exp 53 ------- 0 3.0 0.0 56 56
r 7.500572 -1 2 exp 53 ------- 0 3.0 0.0 52 52
- 7.513286 3 -1 exp 53 ------- 0 3.0 0.0 57 57
r 7.527072 -1 2 exp 53 ------- 0 3.0 0.0 52 52
+ 7.527072 2 0 exp 76 ------- 0 3.0 0.0 52 52
- 7.527072 2 0 exp 76 ------- 0 3.0 0.0 52 52
r 7.527078 2 0 exp 76 ------- 0 3.0 0.0 52 52
- 7.539786 3 -1 exp 53 ------- 0 3.0 0.0 57 57
r 7.553572 -1 2 exp 53 ------- 0 3.0 0.0 53 53
- 7.566286 3 -1 exp 53 ------- 0 3.0 0.0 58 58
r 7.580072 -1 2 exp 53 ------- 0 3.0 0.0 53 53
+ 7.580072 2 0 exp 76 ------- 0 3.0 0.0 53 53
- 7.580072 2 0 exp 76 ------- 0 3.0 0.0 53 53
r 7.580078 2 0 exp 76 ------- 0 3.0 0.0 53 53
- 7.592786 3 -1 exp 53 ------- 0 3.0 0.0 58 58
r 7.606572 -1 2 exp 53 ------- 0 3.0 0.0 54 54
r 7.633072 -1 2 exp 53 ------- 0 3.0 0.0 54 54
+ 7.633072 2 0 exp 76 ------- 0 3.0 0.0 54 54
- 7.633072 2 0 exp 76 ------- 0 3.0 0.0 54 54
r 7.633078 2 0 exp 76 ------- 0 3.0 0.0 54 54
r 7.659572 -1 2 exp 53 ------- 0 3.0 0.0 55 55
h 7.671508 3 -1 exp 76 ------- 0 3.0 0.0 59 59
+ 7.671508 3 -1 exp 53 ------- 0 3.0 0.0 59 59
+ 7.671508 3 -1 exp 53 ------- 0 3.0 0.0 59 59
- 7.672286 3 -1 exp 53 ------- 0 3.0 0.0 59 59
r 7.686072 -1 2 exp 53 ------- 0 3.0 0.0 55 55
+ 7.686072 2 0 exp 76 ------- 0 3.0 0.0 55 55
- 7.686072 2 0 exp 76 ------- 0 3.0 0.0 55 55
r 7.686078 2 0 exp 76 ------- 0 3.0 0.0 55 55
- 7.698786 3 -1 exp 53 ------- 0 3.0 0.0 59 59
h 7.711508 3 -1 exp 76 ------- 0 3.0 0.0 60 60
+ 7.711508 3 -1 exp 53 ------- 0 3.0 0.0 60 60
+ 7.711508 3 -1 exp 53 ------- 0 3.0 0.0 60 60
r 7.712572 -1 2 exp 53 ------- 0 3.0 0.0 56 56
- 7.725286 3 -1 exp 53 ------- 0 3.0 0.0 60 60
r 7.739072 -1 2 exp 53 ------- 0 3.0 0.0 56 56
+ 7.739072 2 0 exp 76 ------- 0 3.0 0.0 56 56
- 7.739072 2 0 exp 76 ------- 0 3.0 0.0 56 56
r 7.739078 2 0 exp 76 ------- 0 3.0 0.0 56 56
h 7.751508 3 -1 exp 76 ------- 0 3.0 0.0 61 61
+ 7.751508 3 -1 exp 53 ------- 0 3.0 0.0 61 61
+ 7.751508 3 -1 exp 53 ------- 0 3.0 0.0 61 61
- 7.751786 3 -1 exp 53 ------- 0 3.0 0.0 60 60
r 7.765572 -1 2 exp 53 ------- 0 3.0 0.0 57 57
- 7.778286 3 -1 exp 53 ------- 0 3.0 0.0 61 61
h 7.791508 3 -1 exp 76 ------- 0 3.0 0.0 62 62
+ 7.791508 3 -1 exp 53 ------- 0 3.0 0.0 62 62
+ 7.791508 3 -1 exp 53 ------- 0 3.0 0.0 62 62
r 7.792072 -1 2 exp 53 ------- 0 3.0 0.0 57 57
+ 7.792072 2 0 exp 76 ------- 0 3.0 0.0 57 57
- 7.792072 2 0 exp 76 ------- 0 3.0 0.0 57 57
r 7.792078 2 0 exp 76 ------- 0 3.0 0.0 57 57
- 7.804786 3 -1 exp 53 ------- 0 3.0 0.0 61 61
r 7.818572 -1 2 exp 53 ------- 0 3.0 0.0 58 58
- 7.831286 3 -1 exp 53 ------- 0 3.0 0.0 62 62
h 7.831508 3 -1 exp 76 ------- 0 3.0 0.0 63 63
+ 7.831508 3 -1 exp 53 ------- 0 3.0 0.0 63 63
+ 7.831508 3 -1 exp 53 ------- 0 3.0 0.0 63 63
r 7.845072 -1 2 exp 53 ------- 0 3.0 0.0 58 58
+ 7.845072 2 0 exp 76 ------- 0 3.0 0.0 58 58
- 7.845072 2 0 exp 76 ------- 0 3.0 0.0 58 58
r 7.845078 2 0 exp 76 ------- 0 3.0 0.0 58 58
- 7.857786 3 -1 exp 53 ------- 0 3.0 0.0 62 62
h 7.871508 3 -1 exp 76 ------- 0 3.0 0.0 64 64
+ 7.871508 3 -1 exp 53 ------- 0 3.0 0.0 64 64
+ 7.871508 3 -1 exp 53 ------- 0 3.0 0.0 64 64
- 7.884286 3 -1 exp 53 ------- 0 3.0 0.0 63 63
- 7.910786 3 -1 exp 53 ------- 0 3.0 0.0 63 63
h 7.911508 3 -1 exp 76 ------- 0 3.0 0.0 65 65
+ 7.911508 3 -1 exp 53 ------- 0 3.0 0.0 65 65
+ 7.911508 3 -1 exp 53 ------- 0 3.0 0.0 65 65
r 7.924572 -1 2 exp 53 ------- 0 3.0 0.0 59 59
- 7.937286 3 -1 exp 53 ------- 0 3.0 0.0 64 64
r 7.951072 -1 2 exp 53 ------- 0 3.0 0.0 59 59
+ 7.951072 2 0 exp 76 ------- 0 3.0 0.0 59 59
- 7.951072 2 0 exp 76 ------- 0 3.0 0.0 59 59
r 7.951078 2 0 exp 76 ------- 0 3.0 0.0 59 59
h 7.951508 3 -1 exp 76 ------- 0 3.0 0.0 66 66
+ 7.951508 3 -1 exp 53 ------- 0 3.0 0.0 66 66
+ 7.951508 3 -1 exp 53 ------- 0 3.0 0.0 66 66
- 7.963786 3 -1 exp 53 ------- 0 3.0 0.0 64 64
r 7.977572 -1 2 exp 53 ------- 0 3.0 0.0 60 60
- 7.990286 3 -1 exp 53 ------- 0 3.0 0.0 65 65
h 7.991508 3 -1 exp 76 ------- 0 3.0 0.0 67 67
+ 7.991508 3 -1 exp 53 ------- 0 3.0 0.0 67 67
+ 7.991508 3 -1 exp 53 ------- 0 3.0 0.0 67 67
r 8.004072 -1 2 exp 53 ------- 0 3.0 0.0 60 60
+ 8.004072 2 0 exp 76 ------- 0 3.0 0.0 60 60
- 8.004072 2 0 exp 76 ------- 0 3.0 0.0 60 60
r 8.004078 2 0 exp 76 ------- 0 3.0 0.0 60 60
- 8.016786 3 -1 exp 53 ------- 0 3.0 0.0 65 65
r 8.030572 -1 2 exp 53 ------- 0 3.0 0.0 61 61
h 8.031508 3 -1 exp 76 ------- 0 3.0 0.0 68 68
+ 8.031508 3 -1 exp 53 ------- 0 3.0 0.0 68 68
+ 8.031508 3 -1 exp 53 ------- 0 3.0 0.0 68 68
- 8.043286 3 -1 exp 53 ------- 0 3.0 0.0 66 66